18
 energy: -2.728549758684 gnorm: 0.000478201768 xtb: 6.6.1 (8d0f1dd)
C            2.65387126722975       -0.06411132478712        0.47983616884475
O            1.52188918123011        0.76580280186677        0.41675382426181
C            0.54239493931782        0.27026856224131       -0.50477029816670
C           -0.77937068437252        1.07620643577461       -0.50365872925620
C           -1.55415402770441       -0.25527506831307       -0.36871662279744
N           -2.56536771822475       -0.27418705245002        0.68345112975526
C           -0.23290274703486       -0.97106510311168       -0.00232442431115
H            2.36101985531157       -1.07631394475026        0.76041654646857
H            3.33919591640278        0.33128584688770        1.23033671665820
H            3.15354232310131       -0.08011389041484       -0.48950425494749
H            0.97656009681211        0.14821900862415       -1.51115504575500
H           -0.97914221632270        1.63874153201956       -1.42544560634264
H           -0.86726699251882        1.71782381574043        0.37873721259159
H           -1.96796419858314       -0.60863501214580       -1.32912524448834
H           -2.14884246499943        0.01202191825789        1.55907520874902
H           -3.29658564156489        0.39297154454853        0.47159299584352
H           -0.11982278100781       -1.12732674423072        1.07507566709633
H           -0.03705410707214       -1.89631532575739       -0.56056524420414
