
                                 *****************
                                 * O   R   C   A *
                                 *****************

                                            #,                                       
                                            ###                                      
                                            ####                                     
                                            #####                                    
                                            ######                                   
                                           ########,                                 
                                     ,,################,,,,,                         
                               ,,#################################,,                 
                          ,,##########################################,,             
                       ,#########################################, ''#####,          
                    ,#############################################,,   '####,        
                  ,##################################################,,,,####,       
                ,###########''''           ''''###############################       
              ,#####''   ,,,,##########,,,,          '''####'''          '####       
            ,##' ,,,,###########################,,,                        '##       
           ' ,,###''''                  '''############,,,                           
         ,,##''                                '''############,,,,        ,,,,,,###''
      ,#''                                            '''#######################'''  
     '                                                          ''''####''''         
             ,#######,   #######,   ,#######,      ##                                
            ,#'     '#,  ##    ##  ,#'     '#,    #''#        ######   ,####,        
            ##       ##  ##   ,#'  ##            #'  '#       #        #'  '#        
            ##       ##  #######   ##           ,######,      #####,   #    #        
            '#,     ,#'  ##    ##  '#,     ,#' ,#      #,         ##   #,  ,#        
             '#######'   ##     ##  '#######'  #'      '#     #####' # '####'        



                  #######################################################
                  #                        -***-                        #
                  #          Department of theory and spectroscopy      #
                  #    Directorship and core code : Frank Neese         #
                  #        Max Planck Institute fuer Kohlenforschung    #
                  #                Kaiser Wilhelm Platz 1               #
                  #                 D-45470 Muelheim/Ruhr               #
                  #                      Germany                        #
                  #                                                     #
                  #                  All rights reserved                #
                  #                        -***-                        #
                  #######################################################


                         Program Version 5.0.3 -  RELEASE  -


 With contributions from (in alphabetic order):
   Daniel Aravena         : Magnetic Suceptibility
   Michael Atanasov       : Ab Initio Ligand Field Theory (pilot matlab implementation)
   Alexander A. Auer      : GIAO ZORA, VPT2 properties, NMR spectrum
   Ute Becker             : Parallelization
   Giovanni Bistoni       : ED, misc. LED, open-shell LED, HFLD
   Martin Brehm           : Molecular dynamics
   Dmytro Bykov           : SCF Hessian
   Vijay G. Chilkuri      : MRCI spin determinant printing, contributions to CSF-ICE
   Dipayan Datta          : RHF DLPNO-CCSD density
   Achintya Kumar Dutta   : EOM-CC, STEOM-CC
   Dmitry Ganyushin       : Spin-Orbit,Spin-Spin,Magnetic field MRCI
   Miquel Garcia          : C-PCM and meta-GGA Hessian, CC/C-PCM, Gaussian charge scheme
   Yang Guo               : DLPNO-NEVPT2, F12-NEVPT2, CIM, IAO-localization
   Andreas Hansen         : Spin unrestricted coupled pair/coupled cluster methods
   Benjamin Helmich-Paris : MC-RPA, TRAH-SCF, COSX integrals
   Lee Huntington         : MR-EOM, pCC
   Robert Izsak           : Overlap fitted RIJCOSX, COSX-SCS-MP3, EOM
   Marcus Kettner         : VPT2
   Christian Kollmar      : KDIIS, OOCD, Brueckner-CCSD(T), CCSD density, CASPT2, CASPT2-K
   Simone Kossmann        : Meta GGA functionals, TD-DFT gradient, OOMP2, MP2 Hessian
   Martin Krupicka        : Initial AUTO-CI
   Lucas Lang             : DCDCAS
   Marvin Lechner         : AUTO-CI (C++ implementation), FIC-MRCC
   Dagmar Lenk            : GEPOL surface, SMD
   Dimitrios Liakos       : Extrapolation schemes; Compound Job, initial MDCI parallelization
   Dimitrios Manganas     : Further ROCIS development; embedding schemes
   Dimitrios Pantazis     : SARC Basis sets
   Anastasios Papadopoulos: AUTO-CI, single reference methods and gradients
   Taras Petrenko         : DFT Hessian,TD-DFT gradient, ASA, ECA, R-Raman, ABS, FL, XAS/XES, NRVS
   Peter Pinski           : DLPNO-MP2, DLPNO-MP2 Gradient
   Christoph Reimann      : Effective Core Potentials
   Marius Retegan         : Local ZFS, SOC
   Christoph Riplinger    : Optimizer, TS searches, QM/MM, DLPNO-CCSD(T), (RO)-DLPNO pert. Triples
   Tobias Risthaus        : Range-separated hybrids, TD-DFT gradient, RPA, STAB
   Michael Roemelt        : Original ROCIS implementation
   Masaaki Saitow         : Open-shell DLPNO-CCSD energy and density
   Barbara Sandhoefer     : DKH picture change effects
   Avijit Sen             : IP-ROCIS
   Kantharuban Sivalingam : CASSCF convergence, NEVPT2, FIC-MRCI
   Bernardo de Souza      : ESD, SOC TD-DFT
   Georgi Stoychev        : AutoAux, RI-MP2 NMR, DLPNO-MP2 response
   Willem Van den Heuvel  : Paramagnetic NMR
   Boris Wezisla          : Elementary symmetry handling
   Frank Wennmohs         : Technical directorship


 We gratefully acknowledge several colleagues who have allowed us to
 interface, adapt or use parts of their codes:
   Stefan Grimme, W. Hujo, H. Kruse, P. Pracht,  : VdW corrections, initial TS optimization,
                  C. Bannwarth, S. Ehlert          DFT functionals, gCP, sTDA/sTD-DF
   Ed Valeev, F. Pavosevic, A. Kumar             : LibInt (2-el integral package), F12 methods
   Garnet Chan, S. Sharma, J. Yang, R. Olivares  : DMRG
   Ulf Ekstrom                                   : XCFun DFT Library
   Mihaly Kallay                                 : mrcc  (arbitrary order and MRCC methods)
   Jiri Pittner, Ondrej Demel                    : Mk-CCSD
   Frank Weinhold                                : gennbo (NPA and NBO analysis)
   Christopher J. Cramer and Donald G. Truhlar   : smd solvation model
   Lars Goerigk                                  : TD-DFT with DH, B97 family of functionals
   V. Asgeirsson, H. Jonsson                     : NEB implementation
   FAccTs GmbH                                   : IRC, NEB, NEB-TS, DLPNO-Multilevel, CI-OPT
                                                   MM, QMMM, 2- and 3-layer-ONIOM, Crystal-QMMM,
                                                   LR-CPCM, SF, NACMEs, symmetry and pop. for TD-DFT,
                                                   nearIR, NL-DFT gradient (VV10), updates on ESD,
                                                   ML-optimized integration grids
   S Lehtola, MJT Oliveira, MAL Marques          : LibXC Library
   Liviu Ungur et al                             : ANISO software


 Your calculation uses the libint2 library for the computation of 2-el integrals
 For citations please refer to: http://libint.valeyev.net

 Your ORCA version has been built with support for libXC version: 5.1.0
 For citations please refer to: https://tddft.org/programs/libxc/

 This ORCA versions uses:
   CBLAS   interface :  Fast vector & matrix operations
   LAPACKE interface :  Fast linear algebra routines
   SCALAPACK package :  Parallel linear algebra routines
   Shared memory     :  Shared parallel matrices
   BLAS/LAPACK       :  OpenBLAS 0.3.15  USE64BITINT DYNAMIC_ARCH NO_AFFINITY Zen SINGLE_THREADED
        Core in use  :  Zen
   Copyright (c) 2011-2014, The OpenBLAS Project


================================================================================

----- Orbital basis set information -----
Your calculation utilizes the basis: def2-SVP
   F. Weigend and R. Ahlrichs, Phys. Chem. Chem. Phys. 7, 3297 (2005).

----- AuxJ basis set information -----
Your calculation utilizes the auxiliary basis: def2/J
   F. Weigend, Phys. Chem. Chem. Phys. 8, 1057 (2006).

================================================================================
                                        WARNINGS
                       Please study these warnings very carefully!
================================================================================


WARNING: Geometry Optimization
  ===> : Switching off AutoStart
         For restart on a previous wavefunction, please use MOREAD

INFO   : the flag for use of the SHARK integral package has been found!

================================================================================
                                       INPUT FILE
================================================================================
NAME = input.inp
|  1> !B3LYP DEF2-SVP OPT
|  2> %output
|  3>   PrintLevel Mini
|  4>   end
|  5> %pal nprocs 24 end
|  6> %geom
|  7>    MaxIter 100
|  8>    end
|  9> * xyz 0 1
| 10>  C          2.7096257717        0.4485425840       -0.1642468052
| 11>  O          1.6129240859       -0.3729460844       -0.4731468833
| 12>  C          0.5792691748       -0.3038794459        0.4737850854
| 13>  C         -0.6259287025       -1.1814200074        0.1129703833
| 14>  C         -1.5616297389        0.0278787901        0.3813677180
| 15>  N         -2.5534423120        0.3946855950       -0.5955360159
| 16>  C         -0.3277748108        0.9463976314        0.4387433643
| 17>  H          2.4232357834        1.5059502274       -0.1279952120
| 18>  H          3.4427033088        0.2984300215       -0.9543598973
| 19>  H          3.1510448465        0.1713354047        0.8016461929
| 20>  H          0.9743574303       -0.5045008344        1.4803574133
| 21>  H         -0.7765019858       -2.0715959466        0.7184273621
| 22>  H         -0.5935203750       -1.4564575098       -0.9396263323
| 23>  H         -2.0599916693       -0.0527473104        1.3504899977
| 24>  H         -2.1333527138        0.4547616578       -1.5175350667
| 25>  H         -3.2957007595       -0.2952330718       -0.6318647498
| 26>  H         -0.2038023856        1.5053605212       -0.4865443875
| 27>  H         -0.2654758447        1.6244999136        1.2857275614
| 28> *
| 29> 
| 30> 
| 31>                          ****END OF INPUT****
================================================================================

                       *****************************
                       * Geometry Optimization Run *
                       *****************************

Geometry optimization settings:
Update method            Update   .... BFGS
Choice of coordinates    CoordSys .... Z-matrix Internals
Initial Hessian          InHess   .... Almoef's Model

Convergence Tolerances:
Energy Change            TolE     ....  5.0000e-06 Eh
Max. Gradient            TolMAXG  ....  3.0000e-04 Eh/bohr
RMS Gradient             TolRMSG  ....  1.0000e-04 Eh/bohr
Max. Displacement        TolMAXD  ....  4.0000e-03 bohr
RMS Displacement         TolRMSD  ....  2.0000e-03 bohr
Strict Convergence                ....  False
------------------------------------------------------------------------------
                        ORCA OPTIMIZATION COORDINATE SETUP
------------------------------------------------------------------------------

The optimization will be done in new redundant internal coordinates
Making redundant internal coordinates   ...  (new redundants) done
Evaluating the initial hessian          ...  (Almloef) done
Evaluating the coordinates              ...  done
Calculating the B-matrix                .... done
Calculating the G-matrix                .... done
Diagonalizing the G-matrix              .... done
The first mode is                       ....   52
The number of degrees of freedom        ....   48

    -----------------------------------------------------------------
                    Redundant Internal Coordinates


    -----------------------------------------------------------------
         Definition                    Initial Value    Approx d2E/dq
    -----------------------------------------------------------------
      1. B(O   1,C   0)                  1.4046         0.530293   
      2. B(C   2,O   1)                  1.4035         0.532465   
      3. B(C   3,C   2)                  1.5339         0.368297   
      4. B(C   4,C   3)                  1.5524         0.344052   
      5. B(N   5,C   4)                  1.4396         0.466303   
      6. B(C   6,C   4)                  1.5393         0.361061   
      7. B(C   6,C   2)                  1.5450         0.353494   
      8. B(H   7,C   0)                  1.0961         0.352115   
      9. B(H   8,C   0)                  1.0882         0.362467   
     10. B(H   9,C   0)                  1.0976         0.350233   
     11. B(H  10,C   2)                  1.0998         0.347383   
     12. B(H  11,C   3)                  1.0870         0.364032   
     13. B(H  12,C   3)                  1.0884         0.362198   
     14. B(H  13,C   4)                  1.0927         0.356504   
     15. B(H  14,N   5)                  1.0150         0.424877   
     16. B(H  15,N   5)                  1.0140         0.426350   
     17. B(H  16,C   6)                  1.0881         0.362620   
     18. B(H  17,C   6)                  1.0868         0.364388   
     19. A(H   7,C   0,H   8)          109.4569         0.290116   
     20. A(O   1,C   0,H   8)          106.5959         0.342015   
     21. A(O   1,C   0,H   7)          111.5594         0.340361   
     22. A(O   1,C   0,H   9)          111.0899         0.340057   
     23. A(H   7,C   0,H   9)          108.6403         0.288559   
     24. A(H   8,C   0,H   9)          109.4625         0.289872   
     25. A(C   0,O   1,C   2)          113.4446         0.405520   
     26. A(O   1,C   2,C   6)          117.1857         0.380155   
     27. A(C   3,C   2,H  10)          113.1534         0.321661   
     28. A(C   6,C   2,H  10)          112.2887         0.319511   
     29. A(C   3,C   2,C   6)           89.7911         0.359071   
     30. A(O   1,C   2,C   3)          113.0666         0.382871   
     31. A(O   1,C   2,H  10)          110.1177         0.339825   
     32. A(C   2,C   3,C   4)           89.2698         0.357421   
     33. A(H  11,C   3,H  12)          109.6235         0.291602   
     34. A(C   4,C   3,H  12)          112.4571         0.320278   
     35. A(C   2,C   3,H  12)          110.4055         0.323871   
     36. A(C   4,C   3,H  11)          117.2658         0.320543   
     37. A(C   2,C   3,H  11)          116.5074         0.324140   
     38. A(C   3,C   4,C   6)           89.3201         0.356218   
     39. A(C   6,C   4,H  13)          112.1200         0.321981   
     40. A(N   5,C   4,H  13)          107.8432         0.333836   
     41. A(C   3,C   4,H  13)          111.7618         0.319451   
     42. A(N   5,C   4,C   6)          115.1815         0.372899   
     43. A(C   3,C   4,N   5)          119.7623         0.369815   
     44. A(H  14,N   5,H  15)          108.1009         0.301660   
     45. A(C   4,N   5,H  15)          110.8086         0.340984   
     46. A(C   4,N   5,H  14)          110.2644         0.340786   
     47. A(C   4,C   6,H  16)          111.4796         0.322880   
     48. A(C   2,C   6,H  16)          111.5984         0.321761   
     49. A(C   2,C   6,C   4)           89.3439         0.357860   
     50. A(H  16,C   6,H  17)          109.6137         0.291701   
     51. A(C   4,C   6,H  17)          116.5724         0.323138   
     52. A(C   2,C   6,H  17)          116.9742         0.322018   
     53. D(C   2,O   1,C   0,H   7)    -61.4028         0.022333   
     54. D(C   2,O   1,C   0,H   9)     59.9779         0.022333   
     55. D(C   2,O   1,C   0,H   8)    179.1592         0.022333   
     56. D(C   6,C   2,O   1,C   0)     76.4155         0.022524   
     57. D(C   3,C   2,O   1,C   0)    178.7880         0.022524   
     58. D(H  10,C   2,O   1,C   0)    -53.5417         0.022524   
     59. D(H  12,C   3,C   2,C   6)    102.4028         0.010850   
     60. D(C   4,C   3,C   2,O   1)   -131.0259         0.010850   
     61. D(H  12,C   3,C   2,O   1)    -17.2688         0.010850   
     62. D(H  11,C   3,C   2,C   6)   -131.7269         0.010850   
     63. D(H  11,C   3,C   2,H  10)    -17.4629         0.010850   
     64. D(H  12,C   3,C   2,H  10)   -143.3333         0.010850   
     65. D(C   4,C   3,C   2,H  10)    102.9097         0.010850   
     66. D(H  11,C   3,C   2,O   1)    108.6015         0.010850   
     67. D(C   4,C   3,C   2,C   6)    -11.3543         0.010850   
     68. D(H  13,C   4,C   3,H  12)    145.9329         0.009564   
     69. D(N   5,C   4,C   3,H  12)     18.4639         0.009564   
     70. D(C   6,C   4,C   3,H  11)    131.1058         0.009564   
     71. D(H  13,C   4,C   3,C   2)   -102.2259         0.009564   
     72. D(H  13,C   4,C   3,H  11)     17.4817         0.009564   
     73. D(C   6,C   4,C   3,C   2)     11.3981         0.009564   
     74. D(C   6,C   4,C   3,H  12)   -100.4431         0.009564   
     75. D(N   5,C   4,C   3,H  11)   -109.9873         0.009564   
     76. D(N   5,C   4,C   3,C   2)    130.3051         0.009564   
     77. D(H  15,N   5,C   4,H  13)    -58.7870         0.018571   
     78. D(H  15,N   5,C   4,C   6)    175.1649         0.018571   
     79. D(H  15,N   5,C   4,C   3)     70.4652         0.018571   
     80. D(H  14,N   5,C   4,H  13)   -178.4312         0.018571   
     81. D(H  14,N   5,C   4,C   6)     55.5207         0.018571   
     82. D(H  14,N   5,C   4,C   3)    -49.1790         0.018571   
     83. D(C   4,C   6,C   2,O   1)    127.4661         0.010052   
     84. D(H  17,C   6,C   4,H  13)    -18.1200         0.010455   
     85. D(H  17,C   6,C   4,C   3)   -131.4115         0.010455   
     86. D(H  16,C   6,C   4,H  13)   -145.0005         0.010455   
     87. D(H  16,C   6,C   4,N   5)    -21.1795         0.010455   
     88. D(C   2,C   6,C   4,H  13)    101.9771         0.010455   
     89. D(C   2,C   6,C   4,N   5)   -134.2020         0.010455   
     90. D(C   2,C   6,C   4,C   3)    -11.3144         0.010455   
     91. D(H  17,C   6,C   2,H  10)     16.1444         0.010052   
     92. D(H  17,C   6,C   2,C   3)    131.1971         0.010052   
     93. D(H  17,C   6,C   2,O   1)   -112.7890         0.010052   
     94. D(H  16,C   6,C   4,C   3)    101.7080         0.010455   
     95. D(H  16,C   6,C   2,H  10)    143.4878         0.010052   
     96. D(H  16,C   6,C   2,C   3)   -101.4595         0.010052   
     97. D(H  16,C   6,C   2,O   1)     14.5543         0.010052   
     98. D(H  17,C   6,C   4,N   5)    105.7010         0.010455   
     99. D(C   4,C   6,C   2,H  10)   -103.6004         0.010052   
    100. D(C   4,C   6,C   2,C   3)     11.4523         0.010052   
    -----------------------------------------------------------------

Number of atoms                         .... 18
Number of degrees of freedom            .... 100

         *************************************************************
         *                GEOMETRY OPTIMIZATION CYCLE   1            *
         *************************************************************
---------------------------------
CARTESIAN COORDINATES (ANGSTROEM)
---------------------------------
  C      2.709626    0.448543   -0.164247
  O      1.612924   -0.372946   -0.473147
  C      0.579269   -0.303879    0.473785
  C     -0.625929   -1.181420    0.112970
  C     -1.561630    0.027879    0.381368
  N     -2.553442    0.394686   -0.595536
  C     -0.327775    0.946398    0.438743
  H      2.423236    1.505950   -0.127995
  H      3.442703    0.298430   -0.954360
  H      3.151045    0.171335    0.801646
  H      0.974357   -0.504501    1.480357
  H     -0.776502   -2.071596    0.718427
  H     -0.593520   -1.456458   -0.939626
  H     -2.059992   -0.052747    1.350490
  H     -2.133353    0.454762   -1.517535
  H     -3.295701   -0.295233   -0.631865
  H     -0.203802    1.505361   -0.486544
  H     -0.265476    1.624500    1.285728

----------------------------
CARTESIAN COORDINATES (A.U.)
----------------------------
  NO LB      ZA    FRAG     MASS         X           Y           Z
   0 C     6.0000    0    12.011    5.120451    0.847623   -0.310381
   1 O     8.0000    0    15.999    3.047985   -0.704766   -0.894118
   2 C     6.0000    0    12.011    1.094660   -0.574249    0.895324
   3 C     6.0000    0    12.011   -1.182834   -2.232560    0.213483
   4 C     6.0000    0    12.011   -2.951053    0.052683    0.720681
   5 N     7.0000    0    14.007   -4.825307    0.745848   -1.125400
   6 C     6.0000    0    12.011   -0.619405    1.788432    0.829105
   7 H     1.0000    0     1.008    4.579252    2.845834   -0.241876
   8 H     1.0000    0     1.008    6.505766    0.563951   -1.803479
   9 H     1.0000    0     1.008    5.954612    0.323777    1.514892
  10 H     1.0000    0     1.008    1.841269   -0.953368    2.797470
  11 H     1.0000    0     1.008   -1.467376   -3.914749    1.357631
  12 H     1.0000    0     1.008   -1.121591   -2.752306   -1.775636
  13 H     1.0000    0     1.008   -3.892820   -0.099678    2.552056
  14 H     1.0000    0     1.008   -4.031452    0.859375   -2.867726
  15 H     1.0000    0     1.008   -6.227972   -0.557910   -1.194051
  16 H     1.0000    0     1.008   -0.385131    2.844719   -0.919436
  17 H     1.0000    0     1.008   -0.501677    3.069860    2.429673



           ************************************************************
           *        Program running with 24 parallel MPI-processes    *
           *              working on a common directory               *
           ************************************************************
------------------------------------------------------------------------------
                   ___                                                        
                  /   \      - P O W E R E D   B Y -                         
                 /     \                                                     
                 |  |  |   _    _      __       _____    __    __             
                 |  |  |  | |  | |    /  \     |  _  \  |  |  /  |          
                  \  \/   | |  | |   /    \    | | | |  |  | /  /          
                 / \  \   | |__| |  /  /\  \   | |_| |  |  |/  /          
                |  |  |   |  __  | /  /__\  \  |    /   |      \           
                |  |  |   | |  | | |   __   |  |    \   |  |\   \          
                \     /   | |  | | |  |  |  |  | |\  \  |  | \   \       
                 \___/    |_|  |_| |__|  |__|  |_| \__\ |__|  \__/        
                                                                              
                      - O R C A' S   B I G   F R I E N D -                    
                                      &                                       
                       - I N T E G R A L  F E E D E R -                       
                                                                              
 v1 FN, 2020, v2 2021                                                         
------------------------------------------------------------------------------


Reading SHARK input file input.SHARKINP.tmp ... ok
----------------------
SHARK INTEGRAL PACKAGE
----------------------

Number of atoms                             ...     18
Number of basis functions                   ...    153
Number of shells                            ...     75
Maximum angular momentum                    ...      2
Integral batch strategy                     ... SHARK/LIBINT Hybrid
RI-J (if used) integral strategy            ... SPLIT-RIJ (Revised 2003 algorithm where possible)
Printlevel                                  ...      1
Contraction scheme used                     ... SEGMENTED contraction
Coulomb Range Separation                    ... NOT USED
Exchange Range Separation                   ... NOT USED
Finite Nucleus Model                        ... NOT USED
Auxiliary Coulomb fitting basis             ... AVAILABLE
   # of basis functions in Aux-J            ...    464
   # of shells in Aux-J                     ...    160
   Maximum angular momentum in Aux-J        ...      4
Auxiliary J/K fitting basis                 ... NOT available
Auxiliary Correlation fitting basis         ... NOT available
Auxiliary 'external' fitting basis          ... NOT available
Integral threshold                          ...     2.500000e-11
Primitive cut-off                           ...     2.500000e-12
Primitive pair pre-selection threshold      ...     2.500000e-12

Calculating pre-screening integrals         ... done (  0.0 sec) Dimension = 75
Organizing shell pair data                  ... done (  0.0 sec)
Shell pair information
Total number of shell pairs                 ...      2850
Shell pairs after pre-screening             ...      2713
Total number of primitive shell pairs       ...      9854
Primitive shell pairs kept                  ...      7136
          la=0 lb=0:    905 shell pairs
          la=1 lb=0:   1025 shell pairs
          la=1 lb=1:    306 shell pairs
          la=2 lb=0:    287 shell pairs
          la=2 lb=1:    164 shell pairs
          la=2 lb=2:     26 shell pairs

Calculating one electron integrals          ... done (  0.0 sec)
Calculating RI/J V-Matrix + Cholesky decomp.... done (  0.0 sec)
Calculating Nuclear repulsion               ... done (  0.0 sec) ENN=    324.950711652269 Eh

SHARK setup successfully completed in   0.1 seconds

Maximum memory used throughout the entire GTOINT-calculation: 11.4 MB


           ************************************************************
           *        Program running with 24 parallel MPI-processes    *
           *              working on a common directory               *
           ************************************************************

Diagonalization of the overlap matrix:
Smallest eigenvalue                        ... 3.055e-04
Time for diagonalization                   ...    0.003 sec
Threshold for overlap eigenvalues          ... 1.000e-08
Number of eigenvalues below threshold      ... 0
Time for construction of square roots      ...    0.005 sec
Total time needed                          ...    0.010 sec

Time for model grid setup =    0.062 sec

Loading Hartree-Fock densities                     ... done
Calculating cut-offs                               ... done
Initializing the effective Hamiltonian             ... done
Setting up the integral package (SHARK)            ... done
Starting the Coulomb interaction                   ... done (   0.0 sec)
Reading the grid                                   ... done
Mapping shells                                     ... done
Starting the XC term evaluation                    ... done (   0.0 sec)
  promolecular density results
     # of electrons  =     55.992870086
     EX              =    -43.780558874
     EC              =     -1.857406899
     EX+EC           =    -45.637965773
Transforming the Hamiltonian                       ... done (   0.0 sec)
Diagonalizing the Hamiltonian                      ... done (   0.0 sec)
Back transforming the eigenvectors                 ... done (   0.0 sec)
Now organizing SCF variables                       ... done
-------------------
DFT GRID GENERATION
-------------------

General Integration Accuracy     IntAcc      ... 4.388
Radial Grid Type                 RadialGrid  ... OptM3 with GC (2021)
Angular Grid (max. ang.)         AngularGrid ... 4 (Lebedev-302)
Angular grid pruning method      GridPruning ... 4 (adaptive)
Weight generation scheme         WeightScheme... Becke
Basis function cutoff            BFCut       ... 1.0000e-11
Integration weight cutoff        WCut        ... 1.0000e-14
Angular grids for H and He will be reduced by one unit
Partially contracted basis set               ... off
Rotationally invariant grid construction     ... off

Total number of grid points                  ...    77418
Total number of batches                      ...     1220
Average number of points per batch           ...       63
Average number of grid points per atom       ...     4301
Time for grid setup =    0.429 sec

--------------------
COSX GRID GENERATION
--------------------

GRIDX 1
-------
General Integration Accuracy     IntAcc      ... 3.816
Radial Grid Type                 RadialGrid  ... OptM3 with GC (2021)
Angular Grid (max. ang.)         AngularGrid ... 1 (Lebedev-50)
Angular grid pruning method      GridPruning ... 4 (adaptive)
Weight generation scheme         WeightScheme... Becke
Basis function cutoff            BFCut       ... 1.0000e-11
Integration weight cutoff        WCut        ... 1.0000e-14
Angular grids for H and He will be reduced by one unit
Partially contracted basis set               ... on
Rotationally invariant grid construction     ... off

Total number of grid points                  ...     9923
Total number of batches                      ...      165
Average number of points per batch           ...       60
Average number of grid points per atom       ...      551
UseSFitting                                  ... on

GRIDX 2
-------
General Integration Accuracy     IntAcc      ... 4.020
Radial Grid Type                 RadialGrid  ... OptM3 with GC (2021)
Angular Grid (max. ang.)         AngularGrid ... 2 (Lebedev-110)
Angular grid pruning method      GridPruning ... 4 (adaptive)
Weight generation scheme         WeightScheme... Becke
Basis function cutoff            BFCut       ... 1.0000e-11
Integration weight cutoff        WCut        ... 1.0000e-14
Angular grids for H and He will be reduced by one unit
Partially contracted basis set               ... on
Rotationally invariant grid construction     ... off

Total number of grid points                  ...    20896
Total number of batches                      ...      335
Average number of points per batch           ...       62
Average number of grid points per atom       ...     1161
UseSFitting                                  ... on

GRIDX 3
-------
General Integration Accuracy     IntAcc      ... 4.338
Radial Grid Type                 RadialGrid  ... OptM3 with GC (2021)
Angular Grid (max. ang.)         AngularGrid ... 3 (Lebedev-194)
Angular grid pruning method      GridPruning ... 4 (adaptive)
Weight generation scheme         WeightScheme... Becke
Basis function cutoff            BFCut       ... 1.0000e-11
Integration weight cutoff        WCut        ... 1.0000e-14
Angular grids for H and He will be reduced by one unit
Partially contracted basis set               ... on
Rotationally invariant grid construction     ... off

Total number of grid points                  ...    45728
Total number of batches                      ...      723
Average number of points per batch           ...       63
Average number of grid points per atom       ...     2540
UseSFitting                                  ... on

Time for X-Grid setup             =    0.472 sec

--------------
SCF ITERATIONS
--------------
ITER       Energy         Delta-E        Max-DP      RMS-DP      [F,P]     Damp
               ***  Starting incremental Fock matrix formation  ***
  0   -326.4035933134   0.000000000000 0.09285870  0.00307328  0.2526176 0.7000
  1   -326.5113657185  -0.107772405045 0.05848946  0.00214819  0.1160978 0.7000
                               ***Turning on DIIS***
  2   -326.5545768532  -0.043211134715 0.10726063  0.00370455  0.0341651 0.0000
  3   -326.6179838891  -0.063407035948 0.05057084  0.00143513  0.0681407 0.0000
  4   -326.6346888267  -0.016704937594 0.01175505  0.00036411  0.0091703 0.0000
  5   -326.6353356704  -0.000646843706 0.00647552  0.00015474  0.0045830 0.0000
                      *** Initiating the SOSCF procedure ***
                           *** Shutting down DIIS ***
                      *** Re-Reading the Fockian *** 
                      *** Removing any level shift *** 
ITER      Energy       Delta-E        Grad      Rot      Max-DP    RMS-DP
  6   -326.63540610  -0.0000704290  0.000205  0.000205  0.002324  0.000054
               *** Restarting incremental Fock matrix formation ***
  7   -326.63541995  -0.0000138463  0.000092  0.000287  0.001385  0.000039
  8   -326.63542030  -0.0000003569  0.000096  0.000107  0.000321  0.000012
  9   -326.63542081  -0.0000005077  0.000021  0.000048  0.000187  0.000006
 10   -326.63542082  -0.0000000091  0.000018  0.000014  0.000074  0.000002
 11   -326.63542084  -0.0000000183  0.000003  0.000010  0.000039  0.000001
 12   -326.63542084  -0.0000000016  0.000003  0.000003  0.000010  0.000000
                  ***Gradient check signals convergence***
              ***Rediagonalizing the Fockian in SOSCF/NRSCF***

               *****************************************************
               *                     SUCCESS                       *
               *           SCF CONVERGED AFTER  13 CYCLES          *
               *****************************************************

Old exchange energy                            =     -8.938905689 Eh
New exchange energy                            =     -8.938928409 Eh
Exchange energy change after final integration =     -0.000022720 Eh
Total energy after final integration           =   -326.635443558 Eh
Final COS-X integration done in                =     0.412 sec
Total Energy       :         -326.63544356 Eh           -8888.20229 eV
  Last Energy change         ...    1.1939e-09  Tolerance :   1.0000e-08
  Last MAX-Density change    ...    2.6645e-15  Tolerance :   1.0000e-07
             **** THE GBW FILE WAS UPDATED (input.gbw) ****
             **** DENSITY input.scfp WAS UPDATED ****
             **** ENERGY FILE WAS UPDATED (input.en.tmp) ****
             **** THE GBW FILE WAS UPDATED (input.gbw) ****
             **** DENSITY input.scfp WAS UPDATED ****
----------------
ORBITAL ENERGIES
----------------

  NO   OCC          E(Eh)            E(eV) 
   0   2.0000     -19.123907      -520.3880 
   1   2.0000     -14.295850      -389.0099 
   2   2.0000     -10.223048      -278.1833 
   3   2.0000     -10.222183      -278.1598 
   4   2.0000     -10.203111      -277.6408 
   5   2.0000     -10.167829      -276.6807 
   6   2.0000     -10.165117      -276.6069 
   7   2.0000      -1.019592       -27.7445 
   8   2.0000      -0.880698       -23.9650 
   9   2.0000      -0.802067       -21.8253 
  10   2.0000      -0.686659       -18.6849 
  11   2.0000      -0.653469       -17.7818 
  12   2.0000      -0.603830       -16.4311 
  13   2.0000      -0.548845       -14.9348 
  14   2.0000      -0.502046       -13.6614 
  15   2.0000      -0.491438       -13.3727 
  16   2.0000      -0.473514       -12.8850 
  17   2.0000      -0.448666       -12.2088 
  18   2.0000      -0.428816       -11.6687 
  19   2.0000      -0.422740       -11.5033 
  20   2.0000      -0.387979       -10.5574 
  21   2.0000      -0.368938       -10.0393 
  22   2.0000      -0.344932        -9.3861 
  23   2.0000      -0.340129        -9.2554 
  24   2.0000      -0.319533        -8.6949 
  25   2.0000      -0.296105        -8.0574 
  26   2.0000      -0.246566        -6.7094 
  27   2.0000      -0.222670        -6.0592 
  28   0.0000       0.054612         1.4861 
  29   0.0000       0.066831         1.8186 
  30   0.0000       0.079061         2.1514 
  31   0.0000       0.103466         2.8155 
  32   0.0000       0.111297         3.0286 
  33   0.0000       0.124823         3.3966 
  34   0.0000       0.134427         3.6580 
  35   0.0000       0.137957         3.7540 
  36   0.0000       0.152983         4.1629 
  37   0.0000       0.158208         4.3051 
  38   0.0000       0.168451         4.5838 
  39   0.0000       0.177415         4.8277 
  40   0.0000       0.184132         5.0105 
  41   0.0000       0.202855         5.5200 
  42   0.0000       0.243289         6.6202 
  43   0.0000       0.282032         7.6745 
  44   0.0000       0.325829         8.8663 
  45   0.0000       0.360194         9.8014 
  46   0.0000       0.426101        11.5948 
  47   0.0000       0.451031        12.2732 
  48   0.0000       0.458145        12.4667 
  49   0.0000       0.471134        12.8202 
  50   0.0000       0.478475        13.0200 
  51   0.0000       0.485852        13.2207 
  52   0.0000       0.511009        13.9053 
  53   0.0000       0.543149        14.7798 
  54   0.0000       0.568367        15.4661 
  55   0.0000       0.572955        15.5909 
  56   0.0000       0.611657        16.6440 
  57   0.0000       0.613672        16.6989 
  58   0.0000       0.628710        17.1081 
  59   0.0000       0.636673        17.3247 
  60   0.0000       0.647526        17.6201 
  61   0.0000       0.660358        17.9692 
  62   0.0000       0.663714        18.0606 
  63   0.0000       0.668863        18.2007 
  64   0.0000       0.677719        18.4417 
  65   0.0000       0.687430        18.7059 
  66   0.0000       0.696799        18.9609 
  67   0.0000       0.698836        19.0163 
  68   0.0000       0.704772        19.1778 
  69   0.0000       0.711698        19.3663 
  70   0.0000       0.734375        19.9834 
  71   0.0000       0.746912        20.3245 
  72   0.0000       0.809106        22.0169 
  73   0.0000       0.826192        22.4818 
  74   0.0000       0.866094        23.5676 
  75   0.0000       0.898863        24.4593 
  76   0.0000       0.943333        25.6694 
  77   0.0000       0.954114        25.9628 
  78   0.0000       1.051660        28.6171 
  79   0.0000       1.096540        29.8384 
  80   0.0000       1.131226        30.7822 
  81   0.0000       1.181291        32.1446 
  82   0.0000       1.213750        33.0278 
  83   0.0000       1.243225        33.8299 
  84   0.0000       1.307516        35.5793 
  85   0.0000       1.312518        35.7154 
  86   0.0000       1.340098        36.4659 
  87   0.0000       1.371407        37.3179 
  88   0.0000       1.414126        38.4803 
  89   0.0000       1.471224        40.0340 
  90   0.0000       1.525047        41.4986 
  91   0.0000       1.529149        41.6103 
  92   0.0000       1.616417        43.9849 
  93   0.0000       1.621165        44.1141 
  94   0.0000       1.659241        45.1502 
  95   0.0000       1.664637        45.2971 
  96   0.0000       1.695347        46.1327 
  97   0.0000       1.727266        47.0013 
  98   0.0000       1.748205        47.5711 
  99   0.0000       1.758831        47.8602 
 100   0.0000       1.773175        48.2505 
 101   0.0000       1.777681        48.3732 
 102   0.0000       1.802797        49.0566 
 103   0.0000       1.812902        49.3316 
 104   0.0000       1.829705        49.7888 
 105   0.0000       1.849454        50.3262 
 106   0.0000       1.854324        50.4587 
 107   0.0000       1.858507        50.5725 
 108   0.0000       1.884506        51.2800 
 109   0.0000       1.898608        51.6638 
 110   0.0000       1.901569        51.7443 
 111   0.0000       1.930038        52.5190 
 112   0.0000       1.943853        52.8949 
 113   0.0000       1.980247        53.8853 
 114   0.0000       2.004235        54.5380 
 115   0.0000       2.046680        55.6930 
 116   0.0000       2.066051        56.2201 
 117   0.0000       2.096590        57.0511 
 118   0.0000       2.140972        58.2588 
 119   0.0000       2.154566        58.6287 
 120   0.0000       2.180162        59.3252 
 121   0.0000       2.199313        59.8464 
 122   0.0000       2.246704        61.1359 
 123   0.0000       2.286910        62.2300 
 124   0.0000       2.332887        63.4811 
 125   0.0000       2.338884        63.6443 
 126   0.0000       2.405789        65.4649 
 127   0.0000       2.418850        65.8203 
 128   0.0000       2.438291        66.3493 
 129   0.0000       2.482034        67.5396 
 130   0.0000       2.509997        68.3005 
 131   0.0000       2.568166        69.8834 
 132   0.0000       2.590509        70.4913 
 133   0.0000       2.673891        72.7603 
 134   0.0000       2.719666        74.0059 
 135   0.0000       2.753156        74.9172 
 136   0.0000       2.777060        75.5676 
 137   0.0000       2.814271        76.5802 
 138   0.0000       2.830957        77.0342 
 139   0.0000       2.856998        77.7429 
 140   0.0000       2.859336        77.8065 
 141   0.0000       2.928777        79.6961 
 142   0.0000       2.938499        79.9606 
 143   0.0000       2.990045        81.3633 
 144   0.0000       3.002981        81.7153 
 145   0.0000       3.073425        83.6321 
 146   0.0000       3.079393        83.7946 
 147   0.0000       3.118663        84.8631 
 148   0.0000       3.180326        86.5411 
 149   0.0000       3.269084        88.9563 
 150   0.0000       3.339652        90.8766 
 151   0.0000       3.408250        92.7432 
 152   0.0000       3.540676        96.3467 
Total SCF time: 0 days 0 hours 0 min 10 sec 

Maximum memory used throughout the entire SCF-calculation: 51.8 MB

-------------------------   --------------------
FINAL SINGLE POINT ENERGY      -326.635443557818
-------------------------   --------------------



           ************************************************************
           *        Program running with 24 parallel MPI-processes    *
           *              working on a common directory               *
           ************************************************************
------------------------------------------------------------------------------
                         ORCA SCF GRADIENT CALCULATION
------------------------------------------------------------------------------

 ... reading COSX grid (gridx3)
Gradient of the Kohn-Sham DFT energy:
Kohn-Sham wavefunction type      ... RKS
Hartree-Fock exchange scaling    ...    0.200
Number of operators              ...    1
Number of atoms                  ...   18
Basis set dimensions             ...  153
Integral neglect threshold       ... 2.5e-11
Integral primitive cutoff        ... 2.5e-12
SHARK Integral package           ... ON

Nuc. rep. gradient       (SHARK) ... done (  0.0 sec)
HCore & Overlap gradient (SHARK) ... done (  0.0 sec)
RI-J gradient            (SHARK) ... done (  0.1 sec)
COSX-gradient                    ... done (  0.6 sec)
Exchange-correlation gradient    ... done

------------------
CARTESIAN GRADIENT
------------------

   1   C   :    0.007789700    0.006852269    0.002802848
   2   O   :    0.000765568    0.001895303   -0.000628257
   3   C   :   -0.002757029    0.001289100    0.007440605
   4   C   :   -0.003270326   -0.002303700   -0.006811483
   5   C   :    0.002067978    0.000589118    0.008421790
   6   N   :    0.003565458   -0.007522026   -0.003958538
   7   C   :    0.000039830    0.003228985   -0.005650102
   8   H   :   -0.000096893   -0.008054263   -0.000522397
   9   H   :   -0.007255171   -0.000961393    0.004582053
  10   H   :   -0.004529764    0.000498165   -0.006260506
  11   H   :   -0.001842877    0.001106763   -0.005647523
  12   H   :    0.001217269    0.008930071   -0.004155233
  13   H   :    0.000177665    0.001352366    0.008120357
  14   H   :    0.001764558    0.000782022   -0.006602382
  15   H   :   -0.000144897    0.001212293    0.005040585
  16   H   :    0.004055435    0.003305933    0.002244385
  17   H   :   -0.001481839   -0.004213056    0.007580858
  18   H   :   -0.000309415   -0.007667832   -0.006147848

Difference to translation invariance:
           :   -0.0002447503    0.0003201180   -0.0001507892

Difference to rotation invariance:
           :    0.0004625893   -0.0003271379    0.0010246368

Norm of the cartesian gradient     ...    0.0336624835
RMS gradient                       ...    0.0045808838
MAX gradient                       ...    0.0089300709

-------
TIMINGS
-------

Total SCF gradient time            ...        1.200 sec

One electron gradient       ....       0.015 sec  (  1.3%)
RI-J Coulomb gradient       ....       0.109 sec  (  9.1%)
COSX gradient               ....       0.552 sec  ( 46.0%)
XC gradient                 ....       0.300 sec  ( 25.0%)

Maximum memory used throughout the entire SCFGRAD-calculation: 40.2 MB
------------------------------------------------------------------------------
                         ORCA GEOMETRY RELAXATION STEP
------------------------------------------------------------------------------

Reading the OPT-File                    .... done
Getting information on internals        .... done
Copying old internal coords+grads       .... done
Making the new internal coordinates     .... (new redundants).... done
Validating the new internal coordinates .... (new redundants).... done
Calculating the B-matrix                .... done
Calculating the G,G- and P matrices     .... done
Transforming gradient to internals      .... done
Projecting the internal gradient        .... done
Number of atoms                         ....  18
Number of internal coordinates          .... 100
Current Energy                          ....  -326.635443558 Eh
Current gradient norm                   ....     0.033662483 Eh/bohr
Maximum allowed component of the step   ....  0.300
Current trust radius                    ....  0.300
Evaluating the initial hessian          ....  (Almloef) done
Projecting the Hessian                  .... done
Forming the augmented Hessian           .... done
Diagonalizing the augmented Hessian     .... done
Last element of RFO vector              ....  0.993287397
Lowest eigenvalues of augmented Hessian:
 -0.002935206  0.010714337  0.018584157  0.022333376  0.022524733
Length of the computed step             ....  0.116454295
The final length of the internal step   ....  0.116454295
Converting the step to cartesian space:
 Initial RMS(Int)=    0.0116454295
Transforming coordinates:
 Iter   0:  RMS(Cart)=    0.0278345799 RMS(Int)=    0.0116298696
 Iter   1:  RMS(Cart)=    0.0001543866 RMS(Int)=    0.0000939960
 Iter   2:  RMS(Cart)=    0.0000023011 RMS(Int)=    0.0000013515
 Iter   3:  RMS(Cart)=    0.0000000378 RMS(Int)=    0.0000000257
done
Storing new coordinates                 .... done

                                .--------------------.
          ----------------------|Geometry convergence|-------------------------
          Item                value                   Tolerance       Converged
          ---------------------------------------------------------------------
          RMS gradient        0.0031525327            0.0001000000      NO
          MAX gradient        0.0097740666            0.0003000000      NO
          RMS step            0.0116454295            0.0020000000      NO
          MAX step            0.0285477356            0.0040000000      NO
          ........................................................
          Max(Bonds)      0.0141      Max(Angles)    1.02
          Max(Dihed)        1.64      Max(Improp)    0.00
          ---------------------------------------------------------------------

The optimization has not yet converged - more geometry cycles are needed


    ---------------------------------------------------------------------------
                         Redundant Internal Coordinates
                            (Angstroem and degrees)

        Definition                    Value    dE/dq     Step     New-Value
    ----------------------------------------------------------------------------
     1. B(O   1,C   0)                1.4046 -0.004073  0.0040    1.4087   
     2. B(C   2,O   1)                1.4035 -0.002383  0.0024    1.4059   
     3. B(C   3,C   2)                1.5339 -0.004171  0.0062    1.5401   
     4. B(C   4,C   3)                1.5524 -0.007273  0.0108    1.5633   
     5. B(N   5,C   4)                1.4396 -0.008230  0.0093    1.4489   
     6. B(C   6,C   4)                1.5393 -0.006990  0.0101    1.5494   
     7. B(C   6,C   2)                1.5450 -0.006370  0.0095    1.5545   
     8. B(H   7,C   0)                1.0961 -0.007801  0.0116    1.1077   
     9. B(H   8,C   0)                1.0882 -0.008067  0.0117    1.0999   
    10. B(H   9,C   0)                1.0976 -0.007440  0.0111    1.1087   
    11. B(H  10,C   2)                1.0998 -0.006015  0.0091    1.1089   
    12. B(H  11,C   3)                1.0870 -0.009774  0.0141    1.1011   
    13. B(H  12,C   3)                1.0884 -0.008206  0.0119    1.1003   
    14. B(H  13,C   4)                1.0927 -0.006714  0.0099    1.1026   
    15. B(H  14,N   5)                1.0150 -0.004569  0.0057    1.0206   
    16. B(H  15,N   5)                1.0140 -0.005304  0.0065    1.0206   
    17. B(H  16,C   6)                1.0881 -0.008784  0.0127    1.1008   
    18. B(H  17,C   6)                1.0868 -0.009599  0.0138    1.1006   
    19. A(H   7,C   0,H   8)          109.46  0.002799   -0.51    108.95   
    20. A(O   1,C   0,H   8)          106.60 -0.003579    0.63    107.23   
    21. A(O   1,C   0,H   7)          111.56 -0.002016    0.37    111.92   
    22. A(O   1,C   0,H   9)          111.09 -0.001930    0.36    111.45   
    23. A(H   7,C   0,H   9)          108.64  0.002257   -0.41    108.23   
    24. A(H   8,C   0,H   9)          109.46  0.002544   -0.45    109.02   
    25. A(C   0,O   1,C   2)          113.44 -0.003105    0.44    113.88   
    26. A(O   1,C   2,C   6)          117.19 -0.000763    0.33    117.52   
    27. A(C   3,C   2,H  10)          113.15  0.000552   -0.17    112.98   
    28. A(C   6,C   2,H  10)          112.29  0.000396   -0.15    112.14   
    29. A(C   3,C   2,C   6)           89.79 -0.000061    0.00     89.79   
    30. A(O   1,C   2,C   3)          113.07 -0.000534    0.16    113.23   
    31. A(O   1,C   2,H  10)          110.12  0.000348   -0.15    109.97   
    32. A(C   2,C   3,C   4)           89.27 -0.001093    0.14     89.41   
    33. A(H  11,C   3,H  12)          109.62 -0.000019   -0.15    109.48   
    34. A(C   4,C   3,H  12)          112.46  0.001028   -0.35    112.11   
    35. A(C   2,C   3,H  12)          110.41  0.000462   -0.09    110.32   
    36. A(C   4,C   3,H  11)          117.27 -0.000403    0.29    117.56   
    37. A(C   2,C   3,H  11)          116.51 -0.000031    0.19    116.69   
    38. A(C   3,C   4,C   6)           89.32  0.001182   -0.18     89.14   
    39. A(C   6,C   4,H  13)          112.12  0.000597   -0.51    111.61   
    40. A(N   5,C   4,H  13)          107.84  0.000839   -0.25    107.59   
    41. A(C   3,C   4,H  13)          111.76  0.000770   -0.46    111.30   
    42. A(N   5,C   4,C   6)          115.18 -0.000931    0.34    115.52   
    43. A(C   3,C   4,N   5)          119.76 -0.002394    1.02    120.78   
    44. A(H  14,N   5,H  15)          108.10  0.002410   -0.60    107.50   
    45. A(C   4,N   5,H  15)          110.81 -0.002060    0.28    111.08   
    46. A(C   4,N   5,H  14)          110.26 -0.001711    0.22    110.48   
    47. A(C   4,C   6,H  16)          111.48  0.000417   -0.08    111.40   
    48. A(C   2,C   6,H  16)          111.60  0.000339   -0.25    111.35   
    49. A(C   2,C   6,C   4)           89.34 -0.000449    0.05     89.39   
    50. A(H  16,C   6,H  17)          109.61  0.000394   -0.25    109.36   
    51. A(C   4,C   6,H  17)          116.57 -0.000404    0.19    116.76   
    52. A(C   2,C   6,H  17)          116.97 -0.000404    0.39    117.36   
    53. D(C   2,O   1,C   0,H   7)    -61.40 -0.000110    0.17    -61.23   
    54. D(C   2,O   1,C   0,H   9)     59.98  0.000033    0.14     60.12   
    55. D(C   2,O   1,C   0,H   8)    179.16 -0.000145    0.19    179.35   
    56. D(C   6,C   2,O   1,C   0)     76.42  0.000302   -0.01     76.40   
    57. D(C   3,C   2,O   1,C   0)    178.79 -0.000523    0.27    179.06   
    58. D(H  10,C   2,O   1,C   0)    -53.54  0.000083    0.05    -53.49   
    59. D(H  12,C   3,C   2,C   6)    102.40 -0.000253   -0.31    102.09   
    60. D(C   4,C   3,C   2,O   1)   -131.03  0.000014   -0.39   -131.42   
    61. D(H  12,C   3,C   2,O   1)    -17.27  0.000753   -0.72    -17.99   
    62. D(H  11,C   3,C   2,C   6)   -131.73  0.000105   -0.44   -132.17   
    63. D(H  11,C   3,C   2,H  10)    -17.46  0.000618   -0.64    -18.10   
    64. D(H  12,C   3,C   2,H  10)   -143.33  0.000261   -0.51   -143.84   
    65. D(C   4,C   3,C   2,H  10)    102.91 -0.000479   -0.18    102.73   
    66. D(H  11,C   3,C   2,O   1)    108.60  0.001110   -0.85    107.75   
    67. D(C   4,C   3,C   2,C   6)    -11.35 -0.000992    0.02    -11.33   
    68. D(H  13,C   4,C   3,H  12)    145.93 -0.000426    0.77    146.70   
    69. D(N   5,C   4,C   3,H  12)     18.46 -0.000211    0.66     19.12   
    70. D(C   6,C   4,C   3,H  11)    131.11  0.000249    0.35    131.46   
    71. D(H  13,C   4,C   3,C   2)   -102.23 -0.000246    0.68   -101.54   
    72. D(H  13,C   4,C   3,H  11)     17.48 -0.001035    1.06     18.54   
    73. D(C   6,C   4,C   3,C   2)     11.40  0.001037   -0.03     11.37   
    74. D(C   6,C   4,C   3,H  12)   -100.44  0.000857    0.06   -100.38   
    75. D(N   5,C   4,C   3,H  11)   -109.99 -0.000819    0.95   -109.04   
    76. D(N   5,C   4,C   3,C   2)    130.31 -0.000031    0.57    130.87   
    77. D(H  15,N   5,C   4,H  13)    -58.79  0.000390    0.15    -58.64   
    78. D(H  15,N   5,C   4,C   6)    175.16 -0.000399    0.78    175.95   
    79. D(H  15,N   5,C   4,C   3)     70.47  0.000234    0.13     70.60   
    80. D(H  14,N   5,C   4,H  13)   -178.43 -0.000188    0.58   -177.85   
    81. D(H  14,N   5,C   4,C   6)     55.52 -0.000978    1.21     56.73   
    82. D(H  14,N   5,C   4,C   3)    -49.18 -0.000345    0.56    -48.61   
    83. D(C   4,C   6,C   2,O   1)    127.47  0.000146    0.26    127.72   
    84. D(H  17,C   6,C   4,H  13)    -18.12  0.001111   -1.14    -19.26   
    85. D(H  17,C   6,C   4,C   3)   -131.41 -0.000343   -0.48   -131.89   
    86. D(H  16,C   6,C   4,H  13)   -145.00  0.000520   -0.87   -145.87   
    87. D(H  16,C   6,C   4,N   5)    -21.18  0.001418   -1.37    -22.55   
    88. D(C   2,C   6,C   4,H  13)    101.98  0.000277   -0.61    101.36   
    89. D(C   2,C   6,C   4,N   5)   -134.20  0.001176   -1.11   -135.31   
    90. D(C   2,C   6,C   4,C   3)    -11.31 -0.001176    0.05    -11.27   
    91. D(H  17,C   6,C   2,H  10)     16.14 -0.000509    0.55     16.70   
    92. D(H  17,C   6,C   2,C   3)    131.20  0.000144    0.34    131.53   
    93. D(H  17,C   6,C   2,O   1)   -112.79 -0.000693    0.61   -112.18   
    94. D(H  16,C   6,C   4,C   3)    101.71 -0.000934   -0.21    101.50   
    95. D(H  16,C   6,C   2,H  10)    143.49  0.000016    0.30    143.79   
    96. D(H  16,C   6,C   2,C   3)   -101.46  0.000669    0.08   -101.38   
    97. D(H  16,C   6,C   2,O   1)     14.55 -0.000168    0.36     14.91   
    98. D(H  17,C   6,C   4,N   5)    105.70  0.002010   -1.64    104.07   
    99. D(C   4,C   6,C   2,H  10)   -103.60  0.000331    0.20   -103.40   
   100. D(C   4,C   6,C   2,C   3)     11.45  0.000983   -0.02     11.44   
    ----------------------------------------------------------------------------

         *************************************************************
         *                GEOMETRY OPTIMIZATION CYCLE   2            *
         *************************************************************
---------------------------------
CARTESIAN COORDINATES (ANGSTROEM)
---------------------------------
  C      2.730341    0.444526   -0.159431
  O      1.627370   -0.375687   -0.467806
  C      0.584314   -0.303885    0.472082
  C     -0.622835   -1.188528    0.108638
  C     -1.571779    0.024939    0.374736
  N     -2.585079    0.399416   -0.590861
  C     -0.331493    0.951628    0.434115
  H      2.451875    1.516111   -0.124332
  H      3.478527    0.295765   -0.951811
  H      3.178790    0.170619    0.816842
  H      0.977017   -0.504057    1.489586
  H     -0.772459   -2.094867    0.715818
  H     -0.589094   -1.462015   -0.956609
  H     -2.063337   -0.059073    1.358137
  H     -2.182865    0.455131   -1.527233
  H     -3.336864   -0.290157   -0.620295
  H     -0.203841    1.512581   -0.504414
  H     -0.272548    1.646616    1.285499

----------------------------
CARTESIAN COORDINATES (A.U.)
----------------------------
  NO LB      ZA    FRAG     MASS         X           Y           Z
   0 C     6.0000    0    12.011    5.159597    0.840033   -0.301281
   1 O     8.0000    0    15.999    3.075284   -0.709945   -0.884025
   2 C     6.0000    0    12.011    1.104193   -0.574260    0.892105
   3 C     6.0000    0    12.011   -1.176988   -2.245992    0.205297
   4 C     6.0000    0    12.011   -2.970232    0.047129    0.708149
   5 N     7.0000    0    14.007   -4.885091    0.754786   -1.116566
   6 C     6.0000    0    12.011   -0.626430    1.798316    0.820359
   7 H     1.0000    0     1.008    4.633373    2.865035   -0.234954
   8 H     1.0000    0     1.008    6.573463    0.558915   -1.798663
   9 H     1.0000    0     1.008    6.007042    0.322424    1.543608
  10 H     1.0000    0     1.008    1.846295   -0.952530    2.814910
  11 H     1.0000    0     1.008   -1.459736   -3.958726    1.352699
  12 H     1.0000    0     1.008   -1.113227   -2.762809   -1.807730
  13 H     1.0000    0     1.008   -3.899142   -0.111632    2.566507
  14 H     1.0000    0     1.008   -4.125018    0.860073   -2.886052
  15 H     1.0000    0     1.008   -6.305759   -0.548318   -1.172188
  16 H     1.0000    0     1.008   -0.385204    2.858363   -0.953204
  17 H     1.0000    0     1.008   -0.515041    3.111653    2.429240

--------------------------------
INTERNAL COORDINATES (ANGSTROEM)
--------------------------------
 C      0   0   0     0.000000000000     0.00000000     0.00000000
 O      1   0   0     1.408683167704     0.00000000     0.00000000
 C      2   1   0     1.405884330993   113.88006527     0.00000000
 C      3   2   1     1.540094905594   113.23020367   179.06184687
 C      4   3   2     1.563267595386    89.41264546   228.58458848
 N      5   4   3     1.448926655535   120.77728294   130.87480371
 C      5   4   3     1.549382966071    89.13287421    11.37317737
 H      1   2   3     1.107731681482   111.92318553   298.76796252
 H      1   2   3     1.099899107090   107.22664876   179.34873041
 H      1   2   3     1.108711037905   111.44528137    60.12151642
 H      3   2   1     1.108873314970   109.96729010   306.50719139
 H      4   3   2     1.101138016314   116.69050412   107.74655067
 H      4   3   2     1.100312170307   110.31634845   342.00890173
 H      5   4   3     1.102617100897   111.30230863   258.45516811
 H      6   5   4     1.020623008819   110.48218931   311.38212002
 H      6   5   4     1.020567448485   111.08501710    70.59613087
 H      7   5   4     1.100817701914   111.40339552   101.49774988
 H      7   5   4     1.100607167195   116.75616780   228.11038569

---------------------------
INTERNAL COORDINATES (A.U.)
---------------------------
 C      0   0   0     0.000000000000     0.00000000     0.00000000
 O      1   0   0     2.662025396426     0.00000000     0.00000000
 C      2   1   0     2.656736361548   113.88006527     0.00000000
 C      3   2   1     2.910357591820   113.23020367   179.06184687
 C      4   3   2     2.954147629313    89.41264546   228.58458848
 N      5   4   3     2.738074567100   120.77728294   130.87480371
 C      5   4   3     2.927909482436    89.13287421    11.37317737
 H      1   2   3     2.093309507869   111.92318553   298.76796252
 H      1   2   3     2.078508087345   107.22664876   179.34873041
 H      1   2   3     2.095160223296   111.44528137    60.12151642
 H      3   2   1     2.095466882507   109.96729010   306.50719139
 H      4   3   2     2.080849286483   116.69050412   107.74655067
 H      4   3   2     2.079288663701   110.31634845   342.00890173
 H      5   4   3     2.083644351273   111.30230863   258.45516811
 H      6   5   4     1.928697972646   110.48218931   311.38212002
 H      6   5   4     1.928592978832   111.08501710    70.59613087
 H      7   5   4     2.080243979991   111.40339552   101.49774988
 H      7   5   4     2.079846127030   116.75616780   228.11038569



           ************************************************************
           *        Program running with 24 parallel MPI-processes    *
           *              working on a common directory               *
           ************************************************************
------------------------------------------------------------------------------
                   ___                                                        
                  /   \      - P O W E R E D   B Y -                         
                 /     \                                                     
                 |  |  |   _    _      __       _____    __    __             
                 |  |  |  | |  | |    /  \     |  _  \  |  |  /  |          
                  \  \/   | |  | |   /    \    | | | |  |  | /  /          
                 / \  \   | |__| |  /  /\  \   | |_| |  |  |/  /          
                |  |  |   |  __  | /  /__\  \  |    /   |      \           
                |  |  |   | |  | | |   __   |  |    \   |  |\   \          
                \     /   | |  | | |  |  |  |  | |\  \  |  | \   \       
                 \___/    |_|  |_| |__|  |__|  |_| \__\ |__|  \__/        
                                                                              
                      - O R C A' S   B I G   F R I E N D -                    
                                      &                                       
                       - I N T E G R A L  F E E D E R -                       
                                                                              
 v1 FN, 2020, v2 2021                                                         
------------------------------------------------------------------------------


Reading SHARK input file input.SHARKINP.tmp ... ok
----------------------
SHARK INTEGRAL PACKAGE
----------------------

Number of atoms                             ...     18
Number of basis functions                   ...    153
Number of shells                            ...     75
Maximum angular momentum                    ...      2
Integral batch strategy                     ... SHARK/LIBINT Hybrid
RI-J (if used) integral strategy            ... SPLIT-RIJ (Revised 2003 algorithm where possible)
Printlevel                                  ...      1
Contraction scheme used                     ... SEGMENTED contraction
Coulomb Range Separation                    ... NOT USED
Exchange Range Separation                   ... NOT USED
Finite Nucleus Model                        ... NOT USED
Auxiliary Coulomb fitting basis             ... AVAILABLE
   # of basis functions in Aux-J            ...    464
   # of shells in Aux-J                     ...    160
   Maximum angular momentum in Aux-J        ...      4
Auxiliary J/K fitting basis                 ... NOT available
Auxiliary Correlation fitting basis         ... NOT available
Auxiliary 'external' fitting basis          ... NOT available
Integral threshold                          ...     2.500000e-11
Primitive cut-off                           ...     2.500000e-12
Primitive pair pre-selection threshold      ...     2.500000e-12

Calculating pre-screening integrals         ... done (  0.0 sec) Dimension = 75
Organizing shell pair data                  ... done (  0.0 sec)
Shell pair information
Total number of shell pairs                 ...      2850
Shell pairs after pre-screening             ...      2707
Total number of primitive shell pairs       ...      9854
Primitive shell pairs kept                  ...      7112
          la=0 lb=0:    905 shell pairs
          la=1 lb=0:   1021 shell pairs
          la=1 lb=1:    306 shell pairs
          la=2 lb=0:    286 shell pairs
          la=2 lb=1:    163 shell pairs
          la=2 lb=2:     26 shell pairs

Calculating one electron integrals          ... done (  0.0 sec)
Calculating RI/J V-Matrix + Cholesky decomp.... done (  0.0 sec)
Calculating Nuclear repulsion               ... done (  0.0 sec) ENN=    322.716627366215 Eh

SHARK setup successfully completed in   0.2 seconds

Maximum memory used throughout the entire GTOINT-calculation: 11.4 MB


           ************************************************************
           *        Program running with 24 parallel MPI-processes    *
           *              working on a common directory               *
           ************************************************************

Diagonalization of the overlap matrix:
Smallest eigenvalue                        ... 3.278e-04
Time for diagonalization                   ...    0.003 sec
Threshold for overlap eigenvalues          ... 1.000e-08
Number of eigenvalues below threshold      ... 0
Time for construction of square roots      ...    0.005 sec
Total time needed                          ...    0.009 sec

-------------------
DFT GRID GENERATION
-------------------

General Integration Accuracy     IntAcc      ... 4.388
Radial Grid Type                 RadialGrid  ... OptM3 with GC (2021)
Angular Grid (max. ang.)         AngularGrid ... 4 (Lebedev-302)
Angular grid pruning method      GridPruning ... 4 (adaptive)
Weight generation scheme         WeightScheme... Becke
Basis function cutoff            BFCut       ... 1.0000e-11
Integration weight cutoff        WCut        ... 1.0000e-14
Angular grids for H and He will be reduced by one unit
Partially contracted basis set               ... off
Rotationally invariant grid construction     ... off

Total number of grid points                  ...    77473
Total number of batches                      ...     1221
Average number of points per batch           ...       63
Average number of grid points per atom       ...     4304
Time for grid setup =    0.400 sec

--------------------
COSX GRID GENERATION
--------------------

GRIDX 1
-------
General Integration Accuracy     IntAcc      ... 3.816
Radial Grid Type                 RadialGrid  ... OptM3 with GC (2021)
Angular Grid (max. ang.)         AngularGrid ... 1 (Lebedev-50)
Angular grid pruning method      GridPruning ... 4 (adaptive)
Weight generation scheme         WeightScheme... Becke
Basis function cutoff            BFCut       ... 1.0000e-11
Integration weight cutoff        WCut        ... 1.0000e-14
Angular grids for H and He will be reduced by one unit
Partially contracted basis set               ... on
Rotationally invariant grid construction     ... off

Total number of grid points                  ...     9926
Total number of batches                      ...      165
Average number of points per batch           ...       60
Average number of grid points per atom       ...      551
UseSFitting                                  ... on

GRIDX 2
-------
General Integration Accuracy     IntAcc      ... 4.020
Radial Grid Type                 RadialGrid  ... OptM3 with GC (2021)
Angular Grid (max. ang.)         AngularGrid ... 2 (Lebedev-110)
Angular grid pruning method      GridPruning ... 4 (adaptive)
Weight generation scheme         WeightScheme... Becke
Basis function cutoff            BFCut       ... 1.0000e-11
Integration weight cutoff        WCut        ... 1.0000e-14
Angular grids for H and He will be reduced by one unit
Partially contracted basis set               ... on
Rotationally invariant grid construction     ... off

Total number of grid points                  ...    20914
Total number of batches                      ...      335
Average number of points per batch           ...       62
Average number of grid points per atom       ...     1162
UseSFitting                                  ... on

GRIDX 3
-------
General Integration Accuracy     IntAcc      ... 4.338
Radial Grid Type                 RadialGrid  ... OptM3 with GC (2021)
Angular Grid (max. ang.)         AngularGrid ... 3 (Lebedev-194)
Angular grid pruning method      GridPruning ... 4 (adaptive)
Weight generation scheme         WeightScheme... Becke
Basis function cutoff            BFCut       ... 1.0000e-11
Integration weight cutoff        WCut        ... 1.0000e-14
Angular grids for H and He will be reduced by one unit
Partially contracted basis set               ... on
Rotationally invariant grid construction     ... off

Total number of grid points                  ...    45778
Total number of batches                      ...      722
Average number of points per batch           ...       63
Average number of grid points per atom       ...     2543
UseSFitting                                  ... on

Time for X-Grid setup             =    0.261 sec

--------------
SCF ITERATIONS
--------------
ITER       Energy         Delta-E        Max-DP      RMS-DP      [F,P]     Damp
               ***  Starting incremental Fock matrix formation  ***
                      *** Initiating the SOSCF procedure ***
                      *** Re-Reading the Fockian *** 
                      *** Removing any level shift *** 
ITER      Energy       Delta-E        Grad      Rot      Max-DP    RMS-DP
  0   -326.63660018 -326.6366001816  0.001981  0.001981  0.045137  0.001103
               *** Restarting incremental Fock matrix formation ***
  1   -326.63703100  -0.0004308214  0.000579  0.001063  0.004436  0.000181
  2   -326.63704759  -0.0000165875  0.000565  0.000524  0.001712  0.000065
  3   -326.63706601  -0.0000184194  0.000184  0.000161  0.001272  0.000041
  4   -326.63706671  -0.0000007029  0.000118  0.000097  0.000361  0.000013
  5   -326.63706748  -0.0000007639  0.000026  0.000036  0.000222  0.000007
  6   -326.63706752  -0.0000000459  0.000007  0.000009  0.000042  0.000002
  7   -326.63706753  -0.0000000030  0.000005  0.000005  0.000023  0.000001
                  ***Gradient check signals convergence***
              ***Rediagonalizing the Fockian in SOSCF/NRSCF***

               *****************************************************
               *                     SUCCESS                       *
               *           SCF CONVERGED AFTER   8 CYCLES          *
               *****************************************************

Old exchange energy                            =     -8.924807225 Eh
New exchange energy                            =     -8.924833577 Eh
Exchange energy change after final integration =     -0.000026353 Eh
Total energy after final integration           =   -326.637093880 Eh
Final COS-X integration done in                =     0.408 sec
Total Energy       :         -326.63709388 Eh           -8888.24719 eV
  Last Energy change         ...   -1.9769e-09  Tolerance :   1.0000e-08
  Last MAX-Density change    ...    3.1086e-15  Tolerance :   1.0000e-07
             **** THE GBW FILE WAS UPDATED (input.gbw) ****
             **** DENSITY input.scfp WAS UPDATED ****
             **** ENERGY FILE WAS UPDATED (input.en.tmp) ****
             **** THE GBW FILE WAS UPDATED (input.gbw) ****
             **** DENSITY input.scfp WAS UPDATED ****
Total SCF time: 0 days 0 hours 0 min 4 sec 

Maximum memory used throughout the entire SCF-calculation: 51.9 MB

-------------------------   --------------------
FINAL SINGLE POINT ENERGY      -326.637093880409
-------------------------   --------------------



           ************************************************************
           *        Program running with 24 parallel MPI-processes    *
           *              working on a common directory               *
           ************************************************************
------------------------------------------------------------------------------
                         ORCA SCF GRADIENT CALCULATION
------------------------------------------------------------------------------

 ... reading COSX grid (gridx3)
Gradient of the Kohn-Sham DFT energy:
Kohn-Sham wavefunction type      ... RKS
Hartree-Fock exchange scaling    ...    0.200
Number of operators              ...    1
Number of atoms                  ...   18
Basis set dimensions             ...  153
Integral neglect threshold       ... 2.5e-11
Integral primitive cutoff        ... 2.5e-12
SHARK Integral package           ... ON

Nuc. rep. gradient       (SHARK) ... done (  0.0 sec)
HCore & Overlap gradient (SHARK) ... done (  0.0 sec)
RI-J gradient            (SHARK) ... done (  0.1 sec)
COSX-gradient                    ... done (  0.6 sec)
Exchange-correlation gradient    ... done

------------------
CARTESIAN GRADIENT
------------------

   1   C   :    0.003634934    0.003106879    0.001339137
   2   O   :   -0.000670293   -0.000703385   -0.001521778
   3   C   :   -0.001304042    0.000401210    0.002527844
   4   C   :   -0.001206725    0.000625462   -0.003124350
   5   C   :    0.002075698    0.000245315    0.004306372
   6   N   :    0.000063681   -0.001961160   -0.002758253
   7   C   :    0.000011340   -0.000163836   -0.003160221
   8   H   :   -0.000991514   -0.000609295   -0.000129786
   9   H   :   -0.000864590   -0.000865678   -0.000443748
  10   H   :   -0.000923548   -0.000579471   -0.000214881
  11   H   :    0.000371037   -0.000043066   -0.000479975
  12   H   :    0.000121849    0.000832005    0.000840005
  13   H   :    0.000093448   -0.000331054    0.000594816
  14   H   :   -0.000854584    0.000308954   -0.000620011
  15   H   :    0.000746497    0.001278476    0.000468141
  16   H   :   -0.000280546    0.000028102    0.000912522
  17   H   :   -0.000448901    0.000066363    0.000569303
  18   H   :    0.000188155   -0.001334659    0.000772370

Difference to translation invariance:
           :   -0.0002381007    0.0003011628   -0.0001224921

Difference to rotation invariance:
           :    0.0004359916   -0.0001293241    0.0009819918

Norm of the cartesian gradient     ...    0.0103051399
RMS gradient                       ...    0.0014023519
MAX gradient                       ...    0.0043063715

-------
TIMINGS
-------

Total SCF gradient time            ...        1.238 sec

One electron gradient       ....       0.016 sec  (  1.3%)
RI-J Coulomb gradient       ....       0.147 sec  ( 11.9%)
COSX gradient               ....       0.552 sec  ( 44.6%)
XC gradient                 ....       0.307 sec  ( 24.8%)

Maximum memory used throughout the entire SCFGRAD-calculation: 40.2 MB
------------------------------------------------------------------------------
                         ORCA GEOMETRY RELAXATION STEP
------------------------------------------------------------------------------

Reading the OPT-File                    .... done
Getting information on internals        .... done
Copying old internal coords+grads       .... done
Making the new internal coordinates     .... (new redundants).... done
Validating the new internal coordinates .... (new redundants).... done
Calculating the B-matrix                .... done
Calculating the G,G- and P matrices     .... done
Transforming gradient to internals      .... done
Projecting the internal gradient        .... done
Number of atoms                         ....  18
Number of internal coordinates          .... 100
Current Energy                          ....  -326.637093880 Eh
Current gradient norm                   ....     0.010305140 Eh/bohr
Maximum allowed component of the step   ....  0.300
Current trust radius                    ....  0.300
Updating the Hessian (BFGS)             .... done
Forming the augmented Hessian           .... done
Diagonalizing the augmented Hessian     .... done
Last element of RFO vector              ....  0.993768351
Lowest eigenvalues of augmented Hessian:
 -0.000275764  0.010429973  0.018450883  0.022330220  0.022522673
Length of the computed step             ....  0.112164046
The final length of the internal step   ....  0.112164046
Converting the step to cartesian space:
 Initial RMS(Int)=    0.0112164046
Transforming coordinates:
 Iter   0:  RMS(Cart)=    0.0233404844 RMS(Int)=    0.0112101394
 Iter   1:  RMS(Cart)=    0.0001887507 RMS(Int)=    0.0000947746
 Iter   2:  RMS(Cart)=    0.0000031197 RMS(Int)=    0.0000017510
 Iter   3:  RMS(Cart)=    0.0000000584 RMS(Int)=    0.0000000397
done
Storing new coordinates                 .... done

                                .--------------------.
          ----------------------|Geometry convergence|-------------------------
          Item                value                   Tolerance       Converged
          ---------------------------------------------------------------------
          Energy change      -0.0016503226            0.0000050000      NO
          RMS gradient        0.0005103801            0.0001000000      NO
          MAX gradient        0.0014348618            0.0003000000      NO
          RMS step            0.0112164046            0.0020000000      NO
          MAX step            0.0289879360            0.0040000000      NO
          ........................................................
          Max(Bonds)      0.0026      Max(Angles)    0.58
          Max(Dihed)        1.66      Max(Improp)    0.00
          ---------------------------------------------------------------------

The optimization has not yet converged - more geometry cycles are needed


    ---------------------------------------------------------------------------
                         Redundant Internal Coordinates
                            (Angstroem and degrees)

        Definition                    Value    dE/dq     Step     New-Value
    ----------------------------------------------------------------------------
     1. B(O   1,C   0)                1.4087  0.001373 -0.0013    1.4074   
     2. B(C   2,O   1)                1.4059  0.000822 -0.0008    1.4051   
     3. B(C   3,C   2)                1.5401 -0.000042  0.0007    1.5408   
     4. B(C   4,C   3)                1.5633 -0.001165  0.0026    1.5658   
     5. B(N   5,C   4)                1.4489  0.000330  0.0002    1.4491   
     6. B(C   6,C   4)                1.5494 -0.001085  0.0024    1.5518   
     7. B(C   6,C   2)                1.5545 -0.000907  0.0022    1.5567   
     8. B(H   7,C   0)                1.1077 -0.000382  0.0014    1.1092   
     9. B(H   8,C   0)                1.0999 -0.000138  0.0010    1.1009   
    10. B(H   9,C   0)                1.1087 -0.000402  0.0014    1.1102   
    11. B(H  10,C   2)                1.1089 -0.000285  0.0011    1.1100   
    12. B(H  11,C   3)                1.1011 -0.000219  0.0013    1.1024   
    13. B(H  12,C   3)                1.1003 -0.000505  0.0016    1.1020   
    14. B(H  13,C   4)                1.1026 -0.000195  0.0010    1.1036   
    15. B(H  14,N   5)                1.0206 -0.000063  0.0005    1.0211   
    16. B(H  15,N   5)                1.0206  0.000155  0.0002    1.0208   
    17. B(H  16,C   6)                1.1008 -0.000506  0.0017    1.1025   
    18. B(H  17,C   6)                1.1006 -0.000242  0.0013    1.1019   
    19. A(H   7,C   0,H   8)          108.95  0.001329   -0.32    108.62   
    20. A(O   1,C   0,H   8)          107.23 -0.001435    0.34    107.56   
    21. A(O   1,C   0,H   7)          111.92 -0.001064    0.25    112.17   
    22. A(O   1,C   0,H   9)          111.45 -0.001011    0.24    111.69   
[...]
                   ___                                                        
                  /   \      - P O W E R E D   B Y -                         
                 /     \                                                     
                 |  |  |   _    _      __       _____    __    __             
                 |  |  |  | |  | |    /  \     |  _  \  |  |  /  |          
                  \  \/   | |  | |   /    \    | | | |  |  | /  /          
                 / \  \   | |__| |  /  /\  \   | |_| |  |  |/  /          
                |  |  |   |  __  | /  /__\  \  |    /   |      \           
                |  |  |   | |  | | |   __   |  |    \   |  |\   \          
                \     /   | |  | | |  |  |  |  | |\  \  |  | \   \       
                 \___/    |_|  |_| |__|  |__|  |_| \__\ |__|  \__/        
                                                                              
                      - O R C A' S   B I G   F R I E N D -                    
                                      &                                       
                       - I N T E G R A L  F E E D E R -                       
                                                                              
 v1 FN, 2020, v2 2021                                                         
------------------------------------------------------------------------------


Reading SHARK input file input.SHARKINP.tmp ... ok
----------------------
SHARK INTEGRAL PACKAGE
----------------------

Number of atoms                             ...     18
Number of basis functions                   ...    153
Number of shells                            ...     75
Maximum angular momentum                    ...      2
Integral batch strategy                     ... SHARK/LIBINT Hybrid
RI-J (if used) integral strategy            ... SPLIT-RIJ (Revised 2003 algorithm where possible)
Printlevel                                  ...      1
Contraction scheme used                     ... SEGMENTED contraction
Coulomb Range Separation                    ... NOT USED
Exchange Range Separation                   ... NOT USED
Finite Nucleus Model                        ... NOT USED
Auxiliary Coulomb fitting basis             ... AVAILABLE
   # of basis functions in Aux-J            ...    464
   # of shells in Aux-J                     ...    160
   Maximum angular momentum in Aux-J        ...      4
Auxiliary J/K fitting basis                 ... NOT available
Auxiliary Correlation fitting basis         ... NOT available
Auxiliary 'external' fitting basis          ... NOT available
Integral threshold                          ...     2.500000e-11
Primitive cut-off                           ...     2.500000e-12
Primitive pair pre-selection threshold      ...     2.500000e-12

Calculating pre-screening integrals         ... done (  0.0 sec) Dimension = 75
Organizing shell pair data                  ... done (  0.0 sec)
Shell pair information
Total number of shell pairs                 ...      2850
Shell pairs after pre-screening             ...      2693
Total number of primitive shell pairs       ...      9854
Primitive shell pairs kept                  ...      7106
          la=0 lb=0:    904 shell pairs
          la=1 lb=0:   1017 shell pairs
          la=1 lb=1:    303 shell pairs
          la=2 lb=0:    281 shell pairs
          la=2 lb=1:    162 shell pairs
          la=2 lb=2:     26 shell pairs

Calculating one electron integrals          ... done (  0.0 sec)
Calculating RI/J V-Matrix + Cholesky decomp.... done (  0.0 sec)
Calculating Nuclear repulsion               ... done (  0.0 sec) ENN=    321.938804482546 Eh

SHARK setup successfully completed in   0.2 seconds

Maximum memory used throughout the entire GTOINT-calculation: 11.4 MB


           ************************************************************
           *        Program running with 24 parallel MPI-processes    *
           *              working on a common directory               *
           ************************************************************

Diagonalization of the overlap matrix:
Smallest eigenvalue                        ... 4.246e-04
Time for diagonalization                   ...    0.004 sec
Threshold for overlap eigenvalues          ... 1.000e-08
Number of eigenvalues below threshold      ... 0
Time for construction of square roots      ...    0.005 sec
Total time needed                          ...    0.010 sec

-------------------
DFT GRID GENERATION
-------------------

General Integration Accuracy     IntAcc      ... 4.388
Radial Grid Type                 RadialGrid  ... OptM3 with GC (2021)
Angular Grid (max. ang.)         AngularGrid ... 4 (Lebedev-302)
Angular grid pruning method      GridPruning ... 4 (adaptive)
Weight generation scheme         WeightScheme... Becke
Basis function cutoff            BFCut       ... 1.0000e-11
Integration weight cutoff        WCut        ... 1.0000e-14
Angular grids for H and He will be reduced by one unit
Partially contracted basis set               ... off
Rotationally invariant grid construction     ... off

Total number of grid points                  ...    77462
Total number of batches                      ...     1219
Average number of points per batch           ...       63
Average number of grid points per atom       ...     4303
Time for grid setup =    0.396 sec

--------------------
COSX GRID GENERATION
--------------------

GRIDX 1
-------
General Integration Accuracy     IntAcc      ... 3.816
Radial Grid Type                 RadialGrid  ... OptM3 with GC (2021)
Angular Grid (max. ang.)         AngularGrid ... 1 (Lebedev-50)
Angular grid pruning method      GridPruning ... 4 (adaptive)
Weight generation scheme         WeightScheme... Becke
Basis function cutoff            BFCut       ... 1.0000e-11
Integration weight cutoff        WCut        ... 1.0000e-14
Angular grids for H and He will be reduced by one unit
Partially contracted basis set               ... on
Rotationally invariant grid construction     ... off

Total number of grid points                  ...     9938
Total number of batches                      ...      166
Average number of points per batch           ...       59
Average number of grid points per atom       ...      552
UseSFitting                                  ... on

GRIDX 2
-------
General Integration Accuracy     IntAcc      ... 4.020
Radial Grid Type                 RadialGrid  ... OptM3 with GC (2021)
Angular Grid (max. ang.)         AngularGrid ... 2 (Lebedev-110)
Angular grid pruning method      GridPruning ... 4 (adaptive)
Weight generation scheme         WeightScheme... Becke
Basis function cutoff            BFCut       ... 1.0000e-11
Integration weight cutoff        WCut        ... 1.0000e-14
Angular grids for H and He will be reduced by one unit
Partially contracted basis set               ... on
Rotationally invariant grid construction     ... off

Total number of grid points                  ...    20931
Total number of batches                      ...      336
Average number of points per batch           ...       62
Average number of grid points per atom       ...     1163
UseSFitting                                  ... on

GRIDX 3
-------
General Integration Accuracy     IntAcc      ... 4.338
Radial Grid Type                 RadialGrid  ... OptM3 with GC (2021)
Angular Grid (max. ang.)         AngularGrid ... 3 (Lebedev-194)
Angular grid pruning method      GridPruning ... 4 (adaptive)
Weight generation scheme         WeightScheme... Becke
Basis function cutoff            BFCut       ... 1.0000e-11
Integration weight cutoff        WCut        ... 1.0000e-14
Angular grids for H and He will be reduced by one unit
Partially contracted basis set               ... on
Rotationally invariant grid construction     ... off

Total number of grid points                  ...    45788
Total number of batches                      ...      726
Average number of points per batch           ...       63
Average number of grid points per atom       ...     2544
UseSFitting                                  ... on

Time for X-Grid setup             =    0.295 sec

--------------
SCF ITERATIONS
--------------
ITER       Energy         Delta-E        Max-DP      RMS-DP      [F,P]     Damp
               ***  Starting incremental Fock matrix formation  ***
                      *** Initiating the SOSCF procedure ***
                      *** Re-Reading the Fockian *** 
                      *** Removing any level shift *** 
ITER      Energy       Delta-E        Grad      Rot      Max-DP    RMS-DP
  0   -326.63800742 -326.6380074220  0.000294  0.000294  0.001276  0.000027
               *** Restarting incremental Fock matrix formation ***
  1   -326.63801076  -0.0000033426  0.000068  0.000148  0.000419  0.000012
  2   -326.63801108  -0.0000003117  0.000021  0.000045  0.000148  0.000005
  3   -326.63801106   0.0000000143  0.000030  0.000020  0.000081  0.000003
                  ***Gradient check signals convergence***
              ***Rediagonalizing the Fockian in SOSCF/NRSCF***

               *****************************************************
               *                     SUCCESS                       *
               *           SCF CONVERGED AFTER   4 CYCLES          *
               *****************************************************

Old exchange energy                            =     -8.924478582 Eh
New exchange energy                            =     -8.924501420 Eh
Exchange energy change after final integration =     -0.000022838 Eh
Total energy after final integration           =   -326.638033936 Eh
Final COS-X integration done in                =     0.430 sec
Total Energy       :         -326.63803394 Eh           -8888.27277 eV
  Last Energy change         ...   -3.5507e-08  Tolerance :   1.0000e-08
  Last MAX-Density change    ...    5.7732e-15  Tolerance :   1.0000e-07
             **** THE GBW FILE WAS UPDATED (input.gbw) ****
             **** DENSITY input.scfp WAS UPDATED ****
             **** ENERGY FILE WAS UPDATED (input.en.tmp) ****
             **** THE GBW FILE WAS UPDATED (input.gbw) ****
             **** DENSITY input.scfp WAS UPDATED ****
----------------
ORBITAL ENERGIES
----------------

  NO   OCC          E(Eh)            E(eV) 
   0   2.0000     -19.126388      -520.4555 
   1   2.0000     -14.300415      -389.1341 
   2   2.0000     -10.227362      -278.3007 
   3   2.0000     -10.226094      -278.2662 
   4   2.0000     -10.208491      -277.7872 
   5   2.0000     -10.172912      -276.8190 
   6   2.0000     -10.171660      -276.7849 
   7   2.0000      -1.020433       -27.7674 
   8   2.0000      -0.877900       -23.8889 
   9   2.0000      -0.803886       -21.8748 
  10   2.0000      -0.685621       -18.6567 
  11   2.0000      -0.648332       -17.6420 
  12   2.0000      -0.600521       -16.3410 
  13   2.0000      -0.551552       -15.0085 
  14   2.0000      -0.499007       -13.5787 
  15   2.0000      -0.489190       -13.3115 
  16   2.0000      -0.472340       -12.8530 
  17   2.0000      -0.447211       -12.1692 
  18   2.0000      -0.427519       -11.6334 
  19   2.0000      -0.418492       -11.3878 
  20   2.0000      -0.382057       -10.3963 
  21   2.0000      -0.367867       -10.0102 
  22   2.0000      -0.346833        -9.4378 
  23   2.0000      -0.336579        -9.1588 
  24   2.0000      -0.320565        -8.7230 
  25   2.0000      -0.298509        -8.1228 
  26   2.0000      -0.247762        -6.7420 
  27   2.0000      -0.226351        -6.1593 
  28   0.0000       0.054540         1.4841 
  29   0.0000       0.064424         1.7531 
  30   0.0000       0.078145         2.1264 
  31   0.0000       0.098447         2.6789 
  32   0.0000       0.111266         3.0277 
  33   0.0000       0.124652         3.3919 
  34   0.0000       0.131709         3.5840 
  35   0.0000       0.136941         3.7264 
  36   0.0000       0.148175         4.0320 
  37   0.0000       0.158843         4.3223 
  38   0.0000       0.166777         4.5382 
  39   0.0000       0.173695         4.7265 
  40   0.0000       0.180800         4.9198 
  41   0.0000       0.209965         5.7134 
  42   0.0000       0.226737         6.1698 
  43   0.0000       0.269040         7.3210 
  44   0.0000       0.334934         9.1140 
  45   0.0000       0.350123         9.5273 
  46   0.0000       0.417913        11.3720 
  47   0.0000       0.437952        11.9173 
  48   0.0000       0.456464        12.4210 
  49   0.0000       0.472821        12.8661 
  50   0.0000       0.474721        12.9178 
  51   0.0000       0.486123        13.2281 
  52   0.0000       0.499438        13.5904 
  53   0.0000       0.538581        14.6555 
  54   0.0000       0.566423        15.4131 
  55   0.0000       0.570557        15.5256 
  56   0.0000       0.602945        16.4070 
  57   0.0000       0.611113        16.6292 
  58   0.0000       0.622812        16.9476 
  59   0.0000       0.629216        17.1218 
  60   0.0000       0.645274        17.5588 
  61   0.0000       0.652117        17.7450 
  62   0.0000       0.660971        17.9859 
  63   0.0000       0.667318        18.1586 
  64   0.0000       0.671521        18.2730 
  65   0.0000       0.680698        18.5227 
  66   0.0000       0.689155        18.7529 
  67   0.0000       0.691821        18.8254 
  68   0.0000       0.699878        19.0446 
  69   0.0000       0.711511        19.3612 
  70   0.0000       0.729848        19.8602 
  71   0.0000       0.753436        20.5020 
  72   0.0000       0.816159        22.2088 
  73   0.0000       0.823811        22.4170 
  74   0.0000       0.860067        23.4036 
  75   0.0000       0.909454        24.7475 
  76   0.0000       0.939430        25.5632 
  77   0.0000       0.956829        26.0366 
  78   0.0000       1.031104        28.0578 
  79   0.0000       1.093738        29.7621 
  80   0.0000       1.102708        30.0062 
  81   0.0000       1.142294        31.0834 
  82   0.0000       1.209331        32.9076 
  83   0.0000       1.217123        33.1196 
  84   0.0000       1.292313        35.1656 
  85   0.0000       1.308290        35.6004 
  86   0.0000       1.338999        36.4360 
  87   0.0000       1.359101        36.9830 
  88   0.0000       1.409030        38.3417 
  89   0.0000       1.468342        39.9556 
  90   0.0000       1.510974        41.1157 
  91   0.0000       1.523441        41.4550 
  92   0.0000       1.603056        43.6214 
  93   0.0000       1.632110        44.4120 
  94   0.0000       1.656636        45.0794 
  95   0.0000       1.674784        45.5732 
  96   0.0000       1.713666        46.6312 
  97   0.0000       1.720607        46.8201 
  98   0.0000       1.735351        47.2213 
  99   0.0000       1.747652        47.5560 
 100   0.0000       1.765844        48.0510 
 101   0.0000       1.780745        48.4565 
 102   0.0000       1.788107        48.6569 
 103   0.0000       1.795103        48.8472 
 104   0.0000       1.818596        49.4865 
 105   0.0000       1.830618        49.8137 
 106   0.0000       1.851067        50.3701 
 107   0.0000       1.863072        50.6968 
 108   0.0000       1.881555        51.1997 
 109   0.0000       1.889154        51.4065 
 110   0.0000       1.893799        51.5329 
 111   0.0000       1.908296        51.9274 
 112   0.0000       1.932282        52.5801 
 113   0.0000       1.970895        53.6308 
 114   0.0000       1.975841        53.7654 
 115   0.0000       2.008185        54.6455 
 116   0.0000       2.045653        55.6651 
 117   0.0000       2.066862        56.2422 
 118   0.0000       2.116571        57.5948 
 119   0.0000       2.139819        58.2274 
 120   0.0000       2.177323        59.2480 
 121   0.0000       2.202619        59.9363 
 122   0.0000       2.227002        60.5998 
 123   0.0000       2.245667        61.1077 
 124   0.0000       2.306306        62.7578 
 125   0.0000       2.321379        63.1679 
 126   0.0000       2.381862        64.8137 
 127   0.0000       2.405275        65.4509 
 128   0.0000       2.432363        66.1880 
 129   0.0000       2.469423        67.1964 
 130   0.0000       2.491278        67.7911 
 131   0.0000       2.545375        69.2632 
 132   0.0000       2.571599        69.9768 
 133   0.0000       2.640067        71.8399 
 134   0.0000       2.678375        72.8823 
 135   0.0000       2.720408        74.0261 
 136   0.0000       2.763503        75.1987 
 137   0.0000       2.793644        76.0189 
 138   0.0000       2.811947        76.5170 
 139   0.0000       2.841355        77.3172 
 140   0.0000       2.851365        77.5896 
 141   0.0000       2.908609        79.1473 
 142   0.0000       2.927827        79.6702 
 143   0.0000       2.971427        80.8566 
 144   0.0000       2.983829        81.1941 
 145   0.0000       3.036952        82.6397 
 146   0.0000       3.096696        84.2654 
 147   0.0000       3.115223        84.7695 
 148   0.0000       3.167422        86.1899 
 149   0.0000       3.243936        88.2720 
 150   0.0000       3.339985        90.8856 
 151   0.0000       3.402160        92.5775 
 152   0.0000       3.533496        96.1513 
Total SCF time: 0 days 0 hours 0 min 3 sec 

Maximum memory used throughout the entire SCF-calculation: 51.9 MB

-------------------------   --------------------
FINAL SINGLE POINT ENERGY      -326.638033935850
-------------------------   --------------------

                                *** OPTIMIZATION RUN DONE ***

                            ***************************************
                            *     ORCA property calculations      *
                            ***************************************

                                    ---------------------
                                    Active property flags
                                    ---------------------
   (+) Dipole Moment


------------------------------------------------------------------------------
                       ORCA ELECTRIC PROPERTIES CALCULATION
------------------------------------------------------------------------------

Dipole Moment Calculation                       ... on
Quadrupole Moment Calculation                   ... off
Polarizability Calculation                      ... off
GBWName                                         ... input.gbw
Electron density                                ... input.scfp
The origin for moment calculation is the CENTER OF MASS  = ( 0.017492, -0.003913  0.005624)

-------------
DIPOLE MOMENT
-------------
                                X             Y             Z
Electronic contribution:     -0.44675      -1.25445      -0.75380
Nuclear contribution   :      0.46451       1.13397       0.89734
                        -----------------------------------------
Total Dipole Moment    :      0.01776      -0.12048       0.14354
                        -----------------------------------------
Magnitude (a.u.)       :      0.18824
Magnitude (Debye)      :      0.47847



--------------------
Rotational spectrum 
--------------------
 
Rotational constants in cm-1:     0.239065     0.047487     0.043938 
Rotational constants in MHz :  7166.996937  1423.611223  1317.222710 

 Dipole components along the rotational axes: 
x,y,z [a.u.] :     0.019805     0.108844     0.152302 
x,y,z [Debye]:     0.050339     0.276659     0.387120 

 

Timings for individual modules:

Sum of individual times         ...       78.276 sec (=   1.305 min)
GTO integral calculation        ...        5.390 sec (=   0.090 min)   6.9 %
SCF iterations                  ...       57.455 sec (=   0.958 min)  73.4 %
SCF Gradient evaluation         ...       15.198 sec (=   0.253 min)  19.4 %
Geometry relaxation             ...        0.233 sec (=   0.004 min)   0.3 %
                             ****ORCA TERMINATED NORMALLY****
TOTAL RUN TIME: 0 days 0 hours 1 minutes 21 seconds 275 msec
